LAMMPS data file via write_data, version 23 Jun 2022, timestep = 20080

1000 atoms
1 atom types

0 27.1552495956168 xlo xhi
0 27.1552495956168 ylo yhi
0 27.1552495956168 zlo zhi

Masses

1 28.0855

Atoms # atomic

691 1 1.2337561888696427 1.405110269157188 0.027274929014660807 0 0 0
964 1 3.424575744594672 1.374503565532507 1.2316192308602925 0 1 1
418 1 5.520784275660249 0.8334631793015015 2.4157037102498258 1 0 1
354 1 8.663215677722647 0.07212147790819085 2.083628589033231 0 0 1
771 1 8.932968807129418 2.304779254056685 1.3448567105880234 0 0 1
30 1 11.765938386532934 0.6406612860032391 1.8060188885266024 0 0 0
733 1 11.161957317786506 2.5539783425899767 0.32448798274999946 0 1 0
451 1 19.05843256025282 0.6848757362250263 0.8223208691032309 -1 0 0
141 1 20.009853296698065 2.066919918032402 2.5113043889742994 -1 0 0
627 1 22.168123837606856 1.106054283219008 2.3902239248958685 -1 0 0
337 1 23.75462188613434 2.5117856057753767 1.3999538364394541 0 1 0
347 1 26.64501443168313 0.3088067768164775 1.1806301489820739 0 0 0
392 1 1.5236423684270586 4.53203082069148 0.7919361559549637 0 0 1
407 1 3.1127062045849514 3.5587003942146054 2.3240073862542796 0 0 0
15 1 6.889227258626364 5.009527312494779 2.205218933687768 0 0 0
155 1 8.210202453502479 5.176280637054077 0.21993777286581462 0 0 1
629 1 12.85181865243069 3.789927273192814 1.4783378780848835 0 0 0
126 1 15.030619405178006 2.988463466590434 1.0582370924584503 0 1 0
181 1 19.575870957744307 4.383358997825606 1.9590775258951405 -1 1 1
361 1 26.87224647631096 3.201690865042734 27.143551932242328 -1 1 0
725 1 0.030551551842219034 6.071788400046749 1.7790224910802725 0 0 0
678 1 4.566952137179492 5.534866166702621 2.010841119998417 0 0 1
282 1 3.5972155924075113 7.761238948252196 2.3075741905060743 1 0 1
462 1 9.904344765667558 6.957024656429362 0.7579109020772441 0 1 1
105 1 12.119022982024388 8.01721783652513 0.8086557722946133 0 0 1
165 1 14.282910431901284 7.215665855684058 27.152992298338713 0 0 -1
939 1 18.033846053411864 6.163323312830141 0.9106552220472673 0 0 0
863 1 22.003058988421913 6.737437853429071 1.1366713479382766 0 1 0
410 1 0.6638835629909285 9.524355640686249 1.486060355294767 1 0 0
745 1 2.6180301784115927 10.45336283527526 0.3391028839722529 0 0 1
452 1 4.287300662277435 8.701215347972505 0.22258442295876443 0 0 0
757 1 6.251525585488667 9.98494051803143 0.15493178095142532 0 0 1
20 1 8.11874853363501 8.67857465747221 0.9437922562713461 0 1 1
87 1 9.681284468983208 10.385336514083178 0.3964747486114726 0 0 1
897 1 13.249192310937019 9.213749273430194 2.56068449351431 0 0 1
578 1 15.375389665746411 8.321420969709713 1.8170264591628351 0 0 1
859 1 16.73117417767637 10.060105882557039 0.9715172234527446 0 0 0
95 1 20.584189389459908 9.631122587352857 2.465766383518981 -1 0 1
266 1 22.75640160985056 8.79588794983319 1.9185151182670288 0 0 0
434 1 23.91820096122378 9.833364303594587 0.06285526577240415 0 0 1
135 1 4.838124064355713 11.748428268553296 0.8976635168871178 0 1 0
838 1 6.077369169527462 13.025233411999578 2.51094857269505 1 0 0
573 1 9.727808986779126 11.207815499550101 2.67482498511863 0 0 0
275 1 8.439630107464781 13.147022954626177 2.0084186304015628 0 -1 0
270 1 12.155296009278032 11.484601637878724 2.4841579772767437 1 1 0
942 1 12.507313882784745 11.550197344884333 0.1344970369639481 0 1 0
80 1 16.077370112960658 12.261912044340232 1.7751849510429043 0 0 1
988 1 21.461990184882296 11.780196933793976 2.3777135296203222 0 0 1
807 1 22.513307860340287 11.832137231034995 0.30781349967846283 -1 0 1
970 1 1.2423847292930217 13.95135984581199 1.550804975332644 1 0 0
837 1 12.110296722340783 15.677188565623602 1.7475666997624475 0 -1 1
13 1 17.27563186942414 14.278485808077807 0.957476583823206 0 0 0
188 1 22.309769353171447 15.645986003072315 2.7110466690355675 -1 0 1
119 1 24.482297110457374 14.738516194552886 2.0337906078642574 0 0 0
62 1 26.383161848033236 14.701754686799317 0.45433402014213914 -1 1 1
441 1 2.6472547851806416 16.874535873403115 0.9786121571548377 1 0 0
253 1 4.424693104443837 18.236697150226565 0.192103491189555 0 0 1
123 1 5.972313502178362 16.69564524323291 1.2147648508742814 0 0 1
643 1 6.951090677014476 18.538967941593132 2.4222770423995756 0 0 1
927 1 10.172701543168733 17.85926257828379 0.6288470451060838 0 0 0
550 1 16.097962585095825 16.360227581955794 0.9171066975384208 0 0 1
697 1 13.676359998623141 18.85194271618915 2.081925940259959 0 -1 1
563 1 14.348373975596008 16.514155258658384 2.507095693018305 1 0 0
891 1 17.841623641437465 17.985750904580797 1.1712341279230802 0 0 1
202 1 21.599651596795844 17.151446032376903 1.0486560901128952 0 0 0
571 1 25.45994814108651 18.338439955207704 2.368345815659557 -1 0 0
518 1 25.07514373632865 17.954962869965037 0.04278580207720488 0 -1 1
171 1 0.5419819983121731 21.632172783734646 1.4294133752488365 1 0 0
528 1 8.269311758924351 19.205187388024168 0.5931427531824924 0 0 0
564 1 9.545226355856553 21.117212920076888 1.1086078732641742 1 1 0
200 1 12.064219869775716 19.252922038102877 0.35646710040602003 1 0 1
449 1 11.814588726559176 21.577683608915493 0.7575778079649049 0 -1 1
948 1 15.037652097101063 19.371484101342602 0.03377253303486603 0 0 0
129 1 17.196603072576853 20.17010517277193 0.5245726550499628 0 0 1
637 1 20.006761083517038 20.485826245069358 2.0956398437719326 0 0 0
587 1 22.07430471398288 19.359911037486874 1.7829673169874254 -1 0 1
16 1 3.881381149326828 22.261363581728098 2.0534555932884735 0 0 0
271 1 7.509161616954359 24.088605802657007 1.9287175291578376 0 -1 1
21 1 8.533691640320354 22.99326679705132 0.09516565684103023 1 -1 0
895 1 13.054873596254383 22.49556996121894 2.573420099730843 0 0 1
786 1 14.905465559931953 23.24625361201539 1.2226901152895864 0 -1 1
145 1 17.164135735554037 22.33754296896933 1.565192080375118 1 0 1
394 1 18.02614488365569 24.04207809714841 0.12873785893600603 0 0 0
704 1 21.715512856246797 24.008377074240286 1.987848467206207 -1 -1 0
633 1 23.30846675917938 22.774423248144366 0.5819684190836858 0 -1 0
601 1 25.655804760354187 22.768558020016414 0.8091181014676025 -1 0 0
933 1 0.8660292160285276 25.578614797416556 1.5423482993026412 1 0 0
67 1 3.111050950888003 26.20335471981572 1.7659066153878815 0 -1 1
918 1 6.657310503204114 26.25277896172715 1.1779928058519034 0 -1 0
966 1 10.472052658910426 25.7521762751604 1.7002148696366208 0 -1 0
262 1 15.905046856509328 26.461158342338802 2.222736766597212 0 0 1
336 1 13.70520905462403 26.457927231912283 1.4414920532672586 0 0 0
874 1 17.301006575039274 26.3359743052108 0.3997834587079071 0 0 1
133 1 22.145064251333178 26.286742775253032 1.1833203709121125 0 -1 1
332 1 4.732033942051094 0.7986964244470723 4.754126328277809 0 1 0
521 1 8.56236356065893 0.4796260780833386 4.399165772815171 0 0 0
713 1 12.357525648479458 1.187155940600628 4.055495820827689 0 0 1
221 1 14.360462094869284 0.42919179364581916 5.253293147501589 0 1 1
228 1 16.322059301694186 0.7762708562608974 3.964520609875191 0 1 0
747 1 19.92757638835888 1.4990103085964144 4.814945981561713 0 1 0
342 1 25.397671967145968 1.422750976919139 2.876363196547379 0 0 0
411 1 1.813816644153531 3.6341109031977625 4.353410841807808 0 0 0
398 1 4.830131944252616 3.2581009231677474 4.101475889092498 0 0 0
473 1 6.982320801295956 2.7855904049362326 2.9229770156413664 0 1 0
214 1 8.21311164537365 2.7174215835954474 4.969430641266127 0 0 0
986 1 12.663591403451392 3.556207243365822 3.81615983255401 1 1 0
913 1 16.118174556144762 2.9934462351306586 3.212545072908164 0 1 1
836 1 14.735118134402486 4.045398729939822 4.8148514554272595 0 0 0
351 1 17.80376630478082 4.661219595752609 3.5471577553313387 0 0 0
463 1 21.653480379012613 5.217799330345812 2.839323493781884 0 0 0
805 1 19.208197865333677 5.138460825015405 5.415525316709521 0 0 1
362 1 23.622967653058538 3.9831766234054147 3.236646216164473 -1 0 1
445 1 23.46055802574235 2.7870759131063796 5.2892671854210915 0 0 1
494 1 26.65340689716615 3.135470259362402 4.0475690747624435 0 0 0
529 1 25.686368465341364 5.187104766095573 3.428712438837562 0 0 1
899 1 1.2998477656327616 7.702488310130622 2.9761572862299013 1 0 1
53 1 2.1991549556832792 5.965379771722495 4.496886784155258 0 0 1
122 1 4.6023720767246 5.705599754227707 4.499491310695021 0 0 1
656 1 5.065002999757426 8.082477175691297 4.099166947457891 1 0 1
991 1 7.67848480116691 6.487575082445508 3.8646345311826638 0 0 0
320 1 9.872673854106914 6.4655805860496605 3.0694451594350043 0 0 0
448 1 11.388296245395313 7.11521921327851 4.716961050822159 0 1 1
386 1 13.529174353688108 8.05044978691698 4.630717975583112 0 1 1
598 1 15.253143046900538 6.398784612678745 4.67550842701089 0 0 0
945 1 16.930628614402018 6.846013488630017 3.000752881436994 0 0 1
752 1 18.36856407113041 8.121212616142225 4.452497907344664 0 0 0
203 1 21.183056809992124 6.304680935247184 4.819591360525048 0 1 0
261 1 25.598790964945344 6.676423910308185 5.289023879173508 -1 0 1
456 1 0.17171034784861172 8.342055339381977 5.065647558621361 1 1 1
356 1 7.209489688702639 8.680593717954626 3.1693968415067304 1 0 0
928 1 8.22394725903219 10.407738503925767 4.4303288431916314 0 1 1
941 1 18.272317198877364 9.86763357279221 2.7958605988863496 0 0 1
586 1 20.759713007927317 8.643769091920696 4.673380034790631 0 1 0
125 1 23.284072450683258 8.95117561696959 4.268089651724947 -1 0 0
951 1 25.524899448344815 9.85988775373644 4.6359924987452885 -1 0 1
352 1 0.7783930046689526 12.726704394388976 3.5402191702614476 1 1 1
190 1 2.2876900002998095 11.990121290381767 5.256199309365664 0 0 1
166 1 6.475887935931303 12.047959784393472 4.627986726982388 0 -1 0
65 1 14.3166040747141 12.144145394430122 3.3975874985597003 0 -1 1
297 1 17.746043202139163 12.042109273395498 3.5655072633862126 0 0 1
666 1 22.960171169889538 11.370953976912734 4.133035868850508 -1 0 0
251 1 26.531738275955334 11.001230610180492 2.8244306050550656 0 0 0
761 1 24.74028625522318 12.553404191362796 3.0625566323122593 0 0 0
149 1 5.159927541608241 15.185016038853806 2.7900951455021747 0 0 1
424 1 2.7636451599385814 14.360147631125315 5.254978470769986 -1 0 0
72 1 2.7410121305601867 15.241961168922522 2.890365101417705 1 0 1
755 1 6.579944390702019 16.014514176939056 4.527805881515798 0 0 1
921 1 9.587107928214527 14.622024236283435 3.656555340755375 0 0 0
482 1 11.792171738024118 13.82985849635244 3.226514237752693 0 0 1
569 1 14.032681100334328 14.460545807677763 3.781718558297059 -1 0 1
289 1 18.506395469528744 14.248184264614508 2.9715211546561684 -1 0 0
378 1 17.812240391751875 15.953096417135576 4.480430948652448 0 1 0
302 1 20.799528017488488 13.858393549516064 3.167939171301044 -1 0 1
525 1 26.10290224590143 13.925264310751437 4.48845237660114 0 0 0
45 1 25.898390630239884 16.224049315766823 3.549356956288623 -1 0 0
163 1 2.1919093405585603 18.394120423973536 2.777922844165093 0 0 0
154 1 1.1254442160366176 16.639878261287752 4.038977919586473 0 -1 1
982 1 10.287207517078874 16.816682775415277 2.8132855289182617 0 0 1
958 1 8.3505419417325 17.564141991897188 4.044530400209843 0 0 0
431 1 11.7789882218323 18.563304678761202 3.6329520273119367 0 0 0
430 1 15.84963906043666 17.283942517675566 4.257823314557086 0 0 1
444 1 18.641249354672297 18.862596362495186 3.2339020540236803 0 0 0
82 1 21.51119698668348 16.334018617802382 4.881371797227414 0 0 1
615 1 19.51059381464793 17.66736214239096 5.196011567198354 0 -1 0
167 1 0.22350068692963318 19.6500838629503 2.739471102246663 1 0 1
335 1 0.529917081188821 19.806542320922333 5.10891240848578 0 0 1
920 1 2.3285659731679336 21.472003894351044 4.993283869381425 1 0 1
641 1 3.670306972995213 20.229595879094695 3.372820821920902 1 -1 0
220 1 6.062119505397489 20.393805933076813 3.782676026349902 0 -1 1
708 1 8.24940458108983 20.950767577194583 4.624473832038031 1 0 0
415 1 10.083440203278784 20.3060315274482 3.283083015080999 0 0 0
63 1 14.383688750633487 20.676744758098923 3.50416403974139 0 -1 0
51 1 16.465488885076315 19.543073898271476 3.9088662172342556 -1 -1 1
189 1 23.821270444235154 19.867517075326504 3.3684901145229866 0 0 0
849 1 1.8036608800836114 22.819567962217935 3.0997963409801272 0 0 0
832 1 5.907862012740161 22.779337590578898 3.1203195705677578 0 0 0
89 1 9.522738344503319 24.193673765565684 3.2942396927459385 1 0 0
858 1 11.025045902233193 22.35000317931662 3.7954748163173666 0 -1 1
314 1 15.743503160326334 24.395336838557427 3.2130395299295484 0 -1 0
953 1 17.922996518645956 23.483792523216245 3.666989527013775 -1 0 1
179 1 20.14084631981794 22.564962936564882 3.1829574260415168 0 0 0
414 1 20.67320480644027 22.22267766841853 5.450569050910535 -1 0 0
24 1 22.79050425336958 23.40886626336297 5.41089539642756 0 -1 0
557 1 25.400797996300334 23.640905033218182 2.9573376193569745 0 0 -1
600 1 24.5569170098976 22.014840403161028 4.414582306915975 -1 0 1
195 1 0.2721178962704946 24.572870791664 3.6196362661460824 1 0 0
655 1 3.6594962163842526 25.9220782493147 4.064471480572139 0 -1 0
103 1 5.561683319201086 24.622647164051816 4.588252960068601 0 0 0
651 1 6.648264901949109 26.64704121177123 5.278745096450104 0 0 0
676 1 12.500161567913548 24.91703239431001 2.8978789435539762 0 0 1
737 1 11.023184394375987 25.245766593488735 4.850457437043365 0 0 0
887 1 14.098098994325499 25.247060057635426 4.673271950283007 0 -1 0
625 1 18.19090945244051 0.002505379397621965 5.181453016062493 0 1 0
990 1 19.257661686576864 25.050601766289446 4.99679292141223 0 0 0
480 1 23.621819801750384 27.13163969066031 3.9481582227788286 -1 -1 0
558 1 23.412430908166876 24.773227721706647 3.496334846756387 0 0 0
372 1 3.2912915374875027 0.8753179439571918 6.93954685874484 0 1 0
915 1 6.793884663604348 0.6216889938339857 7.317822604602658 0 0 0
679 1 10.634966774290943 0.41545341956218657 5.544009882417795 0 0 0
177 1 11.476917292913768 2.1591328367145404 6.991813454848707 0 0 0
389 1 13.787576461158297 2.465522803096858 6.447689362884611 0 0 1
153 1 17.61068955763126 0.02174965858306588 7.434602201459687 0 1 1
566 1 22.022525579243243 0.7504375393817365 5.714191949423611 -1 0 0
402 1 25.668330189401498 2.357783290295531 6.024731900555315 -1 0 0
516 1 25.191541742308633 0.1116677858965983 5.7097408115738695 -1 0 0
672 1 2.211287335130793 4.6985122365489405 7.626554452859991 0 0 0
207 1 3.448587584616511 3.2492812962555897 6.173434020050451 1 0 0
671 1 5.417471793224596 4.83019329213066 6.741770511545569 0 0 0
56 1 6.942087836832385 2.955969664592349 6.964221301361955 0 0 0
544 1 10.057809792602114 3.773511742870902 6.014122460741899 -1 0 0
606 1 11.974770637085749 5.022569671044031 5.570277462208742 0 0 0
648 1 12.909747807793375 5.437217345446797 7.7516469992425865 0 0 0
996 1 19.6006381562625 3.1071153047358804 6.500897301509967 0 0 0
242 1 21.545092737160363 3.176826882174196 7.794629426635801 -1 1 0
19 1 23.353148985257057 4.538784697813396 6.942851408913881 0 0 0
650 1 25.502344831412834 3.8080747032830247 7.911237686379058 0 1 0
174 1 1.4066756730055194 6.721617799805646 6.580955136521602 0 0 1
727 1 7.24904891469386 6.296777218627399 6.19672071640086 0 0 1
315 1 10.371405826840427 7.6779842930991204 6.752411751268358 0 0 0
218 1 9.269140153429982 5.643118550776773 7.215202856456261 0 0 0
479 1 12.52242657113685 7.809845434412684 7.797612304570196 0 0 0
808 1 16.154151180999282 7.06749650806331 6.754573272132272 -1 0 0
596 1 18.502594507919888 7.012842276492428 6.6997844067110455 0 0 0
599 1 23.282214683418946 6.862952210222769 5.778667200192696 0 1 0
47 1 22.385442796433306 8.028278541999603 7.645249736747528 -1 1 0
460 1 26.38668848359183 6.095639968183442 7.469644963407433 0 0 0
822 1 2.624193127314244 8.597671511679227 7.373142750786105 0 0 0
885 1 1.142320676268091 10.167650175241306 6.411540744638292 0 0 1
269 1 4.58996924266345 9.195825191229943 6.1336146475582645 0 0 0
412 1 6.628789363942 8.406221519887627 7.0233658081262345 0 0 0
543 1 8.748955806116244 9.409600624898522 6.560990057701819 0 0 1
436 1 13.865204485396196 9.46245150839793 6.538012827887305 0 0 0
917 1 15.82078640871561 9.131339779882582 7.982256241468847 -1 0 0
675 1 17.915102037149726 10.336313122853612 7.4165275272779985 0 0 0
584 1 20.10471047182444 8.980783767202752 7.067850342277075 0 0 0
888 1 4.560172540472216 11.529115070911987 5.970401540459141 0 0 0
985 1 13.363751504594992 13.194793961334438 7.286186523154534 0 -1 0
44 1 12.845425882044038 11.006429697849477 8.083862432577602 0 0 0
303 1 14.584255871914557 11.666287611381772 5.715050301441289 -1 0 0
699 1 16.932333756160272 11.920019776474192 5.792196287073063 0 -1 0
231 1 20.894311004665777 11.379193686963438 7.692714378593804 0 0 0
623 1 22.755050463724118 12.308545245918946 6.314800683692097 0 0 0
974 1 26.725313860544464 10.9895418898685 8.02267357065696 -1 0 0
900 1 25.074497468487344 11.392963518210717 6.382670801743258 0 0 1
157 1 1.5790107412909467 16.190825241754208 6.408350061551061 0 0 1
478 1 4.6107413539793445 14.859575300704188 6.643540475806164 1 0 0
355 1 6.802653413213018 14.033577624029695 5.915377221655382 0 0 1
925 1 9.115058537371965 14.768569652767638 6.066069845262494 0 -1 1
307 1 10.897331907907565 13.677926939976075 7.3514990154797175 -1 0 0
828 1 14.500871685635415 14.843491997528698 6.030591486244509 -1 0 0
622 1 16.795120954626757 14.294305696821967 5.877234627819818 0 0 0
127 1 18.115651512689062 14.96823303345564 7.670047337677794 1 0 1
607 1 21.284454888082436 14.046836561143403 5.4679670914350185 0 0 1
40 1 20.077257620368428 13.67949857518279 7.464146011333334 0 0 1
121 1 25.731323007578105 13.670862709176951 6.8892856077583335 0 1 0
973 1 26.46360361676372 15.926708145977507 7.019657591572562 0 0 1
29 1 1.6359942047777163 18.58042535361068 6.818527930699404 1 0 0
1 1 3.964401141176487 18.79766211248263 7.059222210930491 1 0 0
800 1 5.307047353697164 17.037831851125684 6.218984358017486 1 0 0
215 1 7.038394044807878 18.313652572498945 7.230730665159301 0 0 0
617 1 8.265784541752195 16.306285123555952 7.848806673899635 0 0 1
692 1 12.692923474298228 18.335660165625914 5.94132079616421 0 0 0
6 1 11.52934421684244 18.574977238839715 8.025298579333924 0 0 0
715 1 14.737485879888721 17.149606991754883 6.332861744743695 0 0 1
359 1 18.580927052966345 17.261115286847193 7.444656091343975 0 -1 1
684 1 23.0367205283184 17.280619028793808 6.338713648700025 0 0 0
593 1 25.26593164354647 17.281019455171048 5.612110980167353 -1 0 0
23 1 5.771944080863648 20.230831969415124 6.243344436459221 0 -1 0
585 1 8.841081328199534 19.061813496044074 5.87640967129392 0 0 0
168 1 10.401021521925578 20.397347465958237 7.138050462171953 1 0 0
854 1 11.974048237893305 21.703871471397026 5.894388997495018 0 -1 0
758 1 13.987267780065599 20.377062109241304 5.908578355423654 0 0 0
736 1 16.461536227988805 20.654334344786392 5.983687659840334 -1 0 0
96 1 20.811848163487138 19.81456019242627 5.869378733925797 0 0 0
710 1 23.158355378882497 19.51949199214146 5.610983253803555 0 0 0
961 1 25.510805490845737 19.600165821688435 6.301572815327831 0 1 0
12 1 1.0321059523408413 22.288980945707735 6.786308944054474 0 -1 0
375 1 1.7022906867092777 24.383932787852665 7.621766714740682 1 0 1
31 1 4.041323245024958 21.770532716914886 6.749157419231071 1 -1 0
663 1 5.395726089190756 23.67952520554288 6.716913654579208 0 -1 0
519 1 7.261360558766901 22.214608531441833 6.4120134806488975 1 -1 0
341 1 8.834493246455619 23.577026241479004 7.569017753601636 0 0 0
306 1 12.623923744975125 23.973670909436944 6.164792342137649 0 -1 0
42 1 15.06724102519906 24.337457885720013 6.74986402651016 0 -1 0
116 1 16.910153370681073 22.93680399997862 5.817194381662586 0 0 0
602 1 19.007541214504027 23.42883371514308 6.817318555094772 0 -1 0
932 1 23.605737564300103 23.95501879048992 7.596063705252539 -1 -1 0
437 1 25.910590636062427 21.937656215061963 6.377038441965455 0 -1 0
767 1 2.323681280737621 26.03424551716711 6.008878611447728 1 -1 0
469 1 0.007585336336563334 25.97699749463521 5.571126975670864 0 -1 0
668 1 10.029689964690219 25.639934752088305 7.073050228178555 0 0 0
384 1 15.292577208763175 26.760580045546522 7.391253341126675 0 0 0
766 1 21.476122720244216 25.465580052680977 5.779275749131271 0 -1 0
792 1 20.935994916484105 25.59255013319289 8.09715738599632 0 -1 0
331 1 24.47109812245749 26.129943088412627 7.62915293208418 -1 0 1
804 1 26.758411704792877 25.496171392787403 7.979600986113031 0 0 0
835 1 1.881140874349277 1.4834338881129605 8.848971738642714 0 1 0
524 1 3.1916428462284827 2.680978896093988 10.42761277657683 0 0 0
545 1 5.02813701659641 1.1973990041004825 10.697490322142984 1 0 0
377 1 4.923912009213289 0.10668660152179742 8.581125151430719 1 1 0
781 1 9.290460008494618 1.2979952669446797 10.226874489912293 0 0 0
425 1 11.369451914971997 2.1417957318804786 9.371968096766972 -1 1 0
281 1 13.365867449298726 1.0996835434286347 10.044523178899077 0 1 0
108 1 14.93225745608682 1.816747712420626 8.397116644474751 0 0 0
875 1 18.27306268956712 2.177650033130204 8.268781734858603 0 0 0
749 1 21.60563540718503 0.7779225969632929 8.24536526172851 0 1 1
774 1 19.74130172919155 1.0928571643472988 9.816297425769912 0 1 0
238 1 23.547393647475715 0.16132289904565755 9.421758658052578 0 0 0
522 1 25.212024469345597 1.832972159321316 9.484265887027755 -1 0 0
682 1 27.056368447790074 0.2678881038275602 9.446358081398474 0 1 0
575 1 0.5619338773793398 3.446420141117791 8.712442084159884 1 1 1
136 1 3.3182655403528454 4.970342597370979 9.688591683378208 0 0 0
433 1 8.072077409403802 3.035924239318513 9.10053402458713 0 0 1
81 1 6.949140086239522 4.734091787859489 10.345134442189023 0 0 0
383 1 9.263575344019628 5.152439795193438 9.51579171407062 0 0 0
477 1 11.578979239457823 4.49830884399429 9.511938854774899 -1 0 0
293 1 16.399162111037295 3.577560043045672 8.997813812307244 0 0 0
911 1 21.122405157355644 4.845184223323969 9.357336937691196 -1 0 0
137 1 5.388530995647803 5.841470312475809 8.996706816903925 1 0 0
399 1 15.214914817932437 5.6924182392002844 8.41457321023972 0 0 0
797 1 15.224711880334171 7.629045539642479 9.905614618701051 -1 0 0
765 1 17.448823903894276 8.094093572941302 10.786274417496118 0 0 0
66 1 19.16442484834986 6.086354096822196 8.909241382253388 -1 0 0
468 1 23.029015749350084 6.045586870021735 8.80067267736884 0 0 -1
646 1 26.7694877503545 7.441675436569726 9.472385527755483 0 0 0
85 1 1.8635736399149099 8.198427069990341 9.568458021946459 0 0 1
963 1 4.545187521526395 10.328522746371153 9.73061823582354 1 1 0
532 1 5.805202265118138 8.270501535342934 9.220475468584645 1 0 0
144 1 7.940060501935259 8.792720941982166 10.191687048441722 0 0 1
547 1 9.08527922088241 10.271156627504244 8.726416406972486 0 0 1
224 1 11.278869860650628 10.139420267831365 9.556556808979504 0 0 0
910 1 12.864677669081932 8.4474576945124 10.080622768850594 0 0 0
930 1 19.54310609814646 8.370515670173585 9.47908705187842 0 1 0
353 1 19.290957915295913 10.795742576455224 9.447109446279212 0 0 -1
999 1 21.539172256833556 8.469712817022419 10.794559355760983 0 0 0
654 1 23.414852080575724 9.144274329144517 9.444262941993616 -1 0 0
998 1 25.75496459715622 9.61747449149239 9.721919716965683 0 0 1
10 1 1.9341743365356763 12.265624631786979 10.154975676910313 1 1 0
618 1 0.14004673193253356 13.247843145766412 8.780106582748047 1 0 0
520 1 4.927954995836228 12.23625598944807 8.248326949025632 0 0 1
83 1 9.103151695569855 12.65512690213442 8.643954493382717 0 0 0
551 1 14.93339202219431 11.133411746309921 9.128429464666752 0 0 0
866 1 18.462267384704916 12.57410881887107 10.806865529520229 0 0 0
748 1 22.705436656597197 11.353049520707785 9.232983346037276 -1 0 0
902 1 23.75592620050106 13.343666898011248 8.376326522935177 0 0 0
764 1 1.8058767956007946 15.08550132363523 8.54351983867316 0 0 1
847 1 4.151146830334555 14.524118682775715 8.985121595026346 0 0 0
502 1 6.956686257098433 13.574512493636572 8.267580150590621 0 0 0
115 1 6.369475540028687 15.749249246817987 9.41056867375986 0 1 1
194 1 10.19360491144401 13.68310741059833 10.440809430044247 0 0 0
466 1 11.65613812817944 15.01314606939806 9.201975469074647 0 0 1
504 1 13.592028701402015 15.534195489598439 10.575222627324388 0 0 0
43 1 14.847075798449797 13.731983819406507 9.334635636348343 0 -1 0
893 1 16.638921928318027 15.439763391902112 9.447524337230853 0 0 0
405 1 20.47786855965356 13.903884413308873 10.707697404014041 0 0 0
730 1 21.764992580222287 14.612778050874715 8.810231144821032 0 0 0
212 1 24.10827874492427 16.078240848871776 10.1543687031087 -1 0 0
877 1 25.354340093622973 14.001546284792495 10.15560449910933 -1 0 0
940 1 0.7663783362441676 16.57924263510283 10.147777898529064 1 0 0
791 1 1.790434366685456 18.70001461198372 10.824196831115621 1 0 0
778 1 3.8501496806617146 19.009411940905732 9.45947485699648 1 -1 0
689 1 6.143746784243933 18.27842099886565 9.4497744157169 0 0 0
198 1 10.226389731536075 16.85814941887557 9.025236927391218 1 0 0
305 1 16.23344446051552 17.541840942621942 8.202953129721626 0 0 0
935 1 14.657024382056099 17.714825171725934 10.034755194512217 -1 0 0
527 1 20.178942120015638 17.90866132811313 9.082353656020887 0 0 0
432 1 22.35460961992695 16.954926146666242 8.657092594043938 0 0 0
316 1 25.91218634665433 17.047265855098217 9.035601264808676 0 0 -1
574 1 1.4254474692354984 20.50168438307161 8.280790603737195 1 0 0
150 1 3.522674606307369 21.371982900426563 9.047615127679968 0 0 0
775 1 6.980630625450043 20.200485382659828 10.66341191116928 1 -1 0
965 1 13.088665068554022 19.408120427650452 9.544133923745473 0 -1 0
99 1 14.53116726742554 20.775693585613986 8.29401687361752 0 -1 0
889 1 16.769507332285936 19.912472007344032 8.255579484824748 -1 0 0
388 1 18.467547341914887 21.03664311837312 9.744140303651347 -1 0 1
567 1 21.0023909123658 19.98789345070344 8.206370747730961 0 0 1
539 1 23.093557873104494 19.214671718915326 9.14457068218823 0 0 0
501 1 27.075792784446133 20.32633685374801 10.142583233811866 0 -1 0
738 1 25.44975239283561 19.32385673393003 8.673012814723464 0 0 0
199 1 5.283033726460252 21.853352964628893 10.694738487007838 0 0 1
728 1 3.1437704195889244 23.731258262910536 9.360587342121628 1 -1 1
844 1 8.675336688201925 21.863945708545025 10.586570416107387 0 0 0
256 1 10.174286234680675 22.069453340686998 8.782466234612567 0 -1 0
59 1 12.246406529227755 22.995240029152548 9.514467323415923 1 0 0
872 1 14.496203432333967 23.101791841585094 8.733734670459329 0 0 0
403 1 20.17455961779856 22.22106719933834 8.593227316039304 -1 0 0
914 1 21.971635577211003 23.758200295824537 9.290403770565023 0 -1 0
229 1 26.94748855681414 22.82329936102868 10.315243502150551 -1 -1 1
809 1 25.75930572807566 23.321811525639113 8.293397952751578 0 0 0
660 1 5.238764469547102 24.884467630562657 8.814544819517286 0 0 0
301 1 7.671349866196472 24.92399792335909 9.078728829025374 1 -1 0
54 1 8.647253333202563 26.971819372038606 8.487803725344422 0 -1 0
957 1 11.955318196335599 24.950509546941834 8.222810339786779 0 0 0
185 1 13.752169102804515 26.119682358557018 9.136935658713996 0 -1 0
931 1 14.724823033754234 24.587008654701204 10.691231931773945 0 -1 0
653 1 17.070436459040174 24.580938736530996 10.291998862419234 0 -1 0
510 1 18.61391377769648 25.28001659050687 8.437376369549964 -1 0 0
739 1 18.77760691950796 26.25126736254781 10.729271014012848 0 -1 0
852 1 23.19825464790379 25.329164276376257 10.69983115344739 -1 0 0
400 1 1.488744788529855 0.2997418175161173 13.103065664007266 1 1 0
703 1 1.70391645843689 2.5680510545013853 12.236147534239649 0 1 1
626 1 6.473803969547165 2.001559789479486 12.40543125884603 0 1 0
890 1 8.484618051747182 0.789368121515857 12.499463450269683 1 1 0
367 1 13.753072218823656 1.0299148751658274 12.363940585176104 0 0 0
926 1 20.292128936495708 2.2081114074769816 11.846417585280738 -1 1 0
856 1 21.80053747624959 1.008279708368195 13.329508424534893 0 0 0
348 1 25.67955309573253 2.2818545775755337 11.82421162152627 -1 0 1
579 1 0.10492702423809122 3.8488708807245913 11.007451768090766 0 0 0
741 1 6.556938561435834 4.37778409981029 12.679482490436438 0 0 0
323 1 12.430073576865386 5.3870335117868615 11.520110812339952 0 1 0
833 1 11.751034916508823 4.21888036864488 13.447991657679738 0 0 0
439 1 15.239753962480142 2.7878733468398758 12.991031838693791 0 0 0
1000 1 16.49467187140963 4.102488523669146 11.348257936631034 0 1 0
860 1 18.360074043527504 3.274991587959789 12.762401367310297 0 1 0
381 1 21.56055874204232 4.167292996977227 11.536297589632097 0 1 0
826 1 23.878336500567578 3.907097495466575 12.070866384242537 -1 0 0
259 1 2.29125700184114 6.501855025831763 11.162742134643407 0 0 1
806 1 0.680674711662912 7.1528883749471746 12.89276793014302 0 0 0
371 1 3.8310747181812426 7.166398186507103 12.769826650829305 0 0 0
903 1 9.23718859975162 6.9497135905808545 11.093396494342501 0 0 -1
187 1 8.273473507650229 6.036105025700518 13.12703376146993 0 0 0
735 1 11.482942414096284 7.5248420679321235 11.79856731524412 1 0 0
406 1 14.78039856209347 5.827434860411053 11.46029191510876 0 1 0
486 1 18.15420089075783 5.847792176625506 11.077795721491606 0 1 0
959 1 19.609417664031433 6.121561938181609 12.94283738360567 0 0 0
376 1 23.987762105448898 6.033833824241187 11.01055881185238 -1 0 0
783 1 21.850879651966977 6.514117727345447 12.181973115426551 0 0 0
296 1 26.376988440257307 6.035304535515485 11.322880291284308 0 1 0
223 1 0.5302287522830489 9.54093454572355 12.529974350095396 0 0 0
38 1 2.3570847344849537 10.061513716534012 10.96520084552873 0 0 0
718 1 3.761854874464144 9.512358239251121 12.835511952612082 1 1 0
868 1 5.415128210853217 10.792518756196944 11.843147680993928 0 0 0
556 1 7.5014860000211225 9.891947292049759 12.191674350921904 0 0 0
853 1 17.470409639927556 9.249732620710605 12.855794543866056 0 0 0
507 1 20.56949134233622 10.446162224769298 11.597231737134894 -1 1 0
740 1 0.40388104597400437 12.577819157162057 11.87160091046199 1 0 0
912 1 5.179674224947447 13.002697927632136 12.544209410633778 0 -1 1
102 1 8.826856732649999 11.79190528540616 12.565965437878868 0 0 0
173 1 10.905849069382644 11.659093437050817 11.291415375864737 0 0 0
428 1 12.959752836669004 11.982193687784264 12.376661884938127 0 0 0