LAMMPS data file via write_data, version 23 Jun 2022, timestep = 51000024

1000 atoms
1 atom types

0.007124056041766025 27.14812553955789 xlo xhi
0.007124056041766025 27.14812553955789 ylo yhi
0.007124056041766025 27.14812553955789 zlo zhi

Masses

1 28.0855

Atoms # atomic

147 1 7.298319472733155 1.0238882408541374 0.5930918166927476 -6 4 3
326 1 5.870637651657171 1.1734171000697537 2.5039403531329607 -7 -1 13
839 1 9.655083729674752 1.400674297140786 0.3521521183738817 -1 14 3
316 1 10.868502636312142 0.9153247008486716 2.3080132946546836 1 7 5
582 1 13.035984298732565 1.6512749337659582 1.6541712663876544 6 4 16
616 1 17.09171488076752 1.7287040531995552 2.576003357100442 -3 4 5
125 1 21.463198684142807 1.1078658806826398 0.8394685236388114 8 -1 -6
291 1 26.93076078402033 1.2565879314001 1.1949721329088743 -4 9 6
804 1 1.190193086763123 3.124350973550413 0.9911193756930025 16 -8 -2
463 1 0.4331321387073348 5.352497910587102 1.3342145059274961 -5 3 8
365 1 4.628736925335147 3.1894862567401208 2.3899198512700317 3 16 3
523 1 5.071775803363628 4.8113577711553495 0.7454099960876267 8 6 3
359 1 9.454617739510862 4.815602364839387 1.3743138400890704 10 7 6
855 1 12.920104235104512 3.6960701135472247 0.5608866637165792 7 -4 -4
738 1 18.09215784180098 3.3240733340105044 1.0614667773896127 -11 0 1
836 1 17.23339264239831 5.31853231742671 1.9977653021273898 -7 1 1
571 1 20.490410532085665 3.2627888455469347 1.1406515587065464 -12 0 4
325 1 21.867060704080025 4.985698912205916 0.14345801297536256 -3 8 13
256 1 24.05388673205962 3.4024645189115796 2.3933139379150896 -4 -5 1
664 1 23.478689441345836 3.200730738378897 0.10642545249851192 0 -7 -6
563 1 25.358112705627025 5.341731849129274 2.158518638478414 3 -8 8
986 1 3.5929844180491757 6.647682723293171 1.012807206260774 -12 3 -1
356 1 5.040392606603613 7.988623840670778 2.333633338729205 10 11 -3
166 1 7.321214470588626 5.606337985928978 0.7112499382436289 11 -4 -4
441 1 10.423431113724536 6.9303499821610535 1.7992738009183662 1 -7 -7
199 1 13.889257834971893 5.454359311224604 1.8681429623888735 2 -11 9
670 1 14.304330926951188 7.283237628544961 0.4410880251363334 7 -29 7
626 1 16.493313551427715 6.497773746754683 0.09685691152436939 -1 -6 6
845 1 20.69596368227917 6.792608180221273 1.1710481341138042 -16 -6 -11
722 1 23.91446941476409 6.310558962839572 0.5541875954138923 6 -4 -4
517 1 2.2115968466783444 10.629205077925974 2.318067789701492 -5 -10 8
408 1 5.825969015717408 9.831104283608152 1.135056392516131 -4 -8 -8
128 1 9.613586123331773 10.28930864127374 2.3534091737104754 7 5 -2
528 1 10.569654380957257 10.00996971129397 0.22070088730873808 0 -4 -6
825 1 12.829292574123807 10.740418947227578 0.18576346025809556 -4 -12 7
812 1 14.235429559329097 9.398893342919655 1.5275661962621463 -4 -7 10
913 1 16.54227620389933 9.93010774340892 1.6487961059541227 -4 18 0
707 1 20.743936458936084 10.345867062336005 0.418214133218099 -9 -3 -4
760 1 21.886966683832636 8.703504082298329 1.8862563484343928 5 0 -6
690 1 24.164215288633763 8.496531857863527 1.400789501015573 6 -11 13
398 1 27.062038403744367 10.561277632198644 1.7219623035553813 -2 -4 9
980 1 3.844674150592066 11.029319288401632 0.6366891667924354 -1 0 12
550 1 4.963773936896453 13.105129798479116 1.0812947205308057 -4 0 -2
278 1 7.400097336635793 11.11955163735291 2.370185509912908 16 5 13
97 1 7.463956835728786 13.225877025723412 1.3881411912632402 14 18 -10
733 1 12.318124088722552 12.418375297434778 1.7231378553504593 -6 14 9
791 1 17.195649246667326 11.996272538750928 0.7541413588107585 1 -9 0
207 1 19.338751448098325 11.913807116333693 1.7583718409550109 21 0 -11
806 1 23.536968243852133 12.254234104000195 2.116030139934562 -14 8 -5
979 1 22.962051155968755 11.199003589133946 0.07307247678085023 -10 5 -4
568 1 25.88734916347686 12.598139918262419 2.1221102116590913 -6 -9 16
786 1 0.3695777661524109 15.526886879215159 0.9401423491560781 3 8 -3
698 1 2.5700924040738915 16.019694984790842 1.8594955208412935 -7 7 -6
182 1 4.193019524160318 16.233973769205924 0.1697879433365255 5 -3 5
51 1 11.368145359626594 14.17614396828034 0.49578762371242263 -6 4 15
344 1 15.819954865518312 13.835600682671885 1.4077736791908058 -13 7 -2
392 1 20.0236659726019 14.153003769159888 1.541306182477018 -16 3 22
226 1 22.294454123897484 14.251834033659204 2.2699516170893426 10 2 -5
813 1 22.873865747774552 15.76336361284845 0.5789535708910525 4 -7 8
156 1 26.19839198708522 13.743832861938616 0.06437954334271179 1 -12 -4
59 1 6.209238703167851 16.857345509514612 1.2419606154936371 6 5 2
830 1 9.971912682620907 17.72446750108712 0.1785144184396889 -8 9 5
86 1 11.431166593199192 16.36949199211702 1.427306719949392 -1 -8 3
31 1 13.455807466394917 17.670507306042687 1.8300129630156448 4 5 6
137 1 19.193455550617898 18.05428967376739 2.3317747997335037 -1 -3 13
526 1 19.5328965913958 18.543857112035603 0.05883430407311278 -7 0 11
483 1 24.134265748208676 17.5092335757084 1.4921571006289245 2 -1 10
967 1 26.224702222133217 16.864261389464225 2.3869410996076326 2 -1 3
646 1 0.8048614269033397 19.21439398052103 0.6697547745458022 -8 -8 3
426 1 2.59063478653543 20.69327926636133 0.820613313214361 11 2 5
652 1 4.074054821150938 19.789908758264126 2.367579375060986 9 10 -6
484 1 6.272400430120874 19.11939109590973 1.9538533083383924 4 -12 3
172 1 7.703725103176239 20.799050403672588 0.9327246080124909 -11 -3 1
287 1 9.626135278775363 19.492111408207606 1.6014536594895858 -7 -5 1
393 1 11.057724819404635 21.07655487042739 0.5540369184817852 4 -3 -9
260 1 15.886084148265503 20.086291605275914 1.7199881166145108 6 -12 11
451 1 23.730516667055355 21.35286031496886 2.115652961375237 -6 5 -3
73 1 26.044996657261002 21.655732868974027 1.9431767383485752 1 -12 2
818 1 1.8426037769564763 22.875860220488672 1.4328585219717327 8 -5 -4
9 1 6.316569839446076 22.656068827120166 1.6776537575544592 -6 -3 7
366 1 9.420290640360243 22.49555192176149 1.513131412167347 3 6 1
215 1 12.644196115667453 21.742318657819606 2.1265804365436405 -6 -4 -1
877 1 14.125648077082474 23.438676238974182 1.3745318973644973 18 -1 -15
920 1 16.071333118618025 22.37976351241175 2.176362421341089 6 3 0
313 1 18.205481398706976 23.163366387581934 1.504359588433775 13 10 4
852 1 20.03312549062517 21.721423126090485 2.2341567411381233 -8 5 3
171 1 21.488765820237862 23.566523631954293 2.6464544315894822 -3 0 -11
117 1 22.573839681892785 22.068406550347962 0.19880684781601837 6 2 -7
863 1 22.050800494818397 24.35118885238223 0.49691241157734106 3 10 0
478 1 26.806391569705482 23.93564626019339 1.5514901648879817 -4 2 -7
376 1 0.8911849226312806 26.214778671151564 1.276843003773005 6 17 -5
506 1 3.2622421678776643 26.14364757142561 0.6764530568318295 -5 -11 1
699 1 4.78529834553862 26.206630406650465 2.5101080616266516 -1 19 -18
5 1 7.640029180005885 25.80667773653132 0.7535385850709612 -3 8 -7
18 1 6.715811106895468 24.791329548186376 2.6717419036313603 -2 8 4
122 1 9.718042735616294 24.719750477142586 0.942779484595564 3 4 -6
279 1 11.149038497006453 25.75526317795926 2.451315761322963 -5 4 -2
383 1 13.43945758277831 25.605231975160052 1.9503058378062748 -9 -2 1
36 1 13.947491712600284 27.148049338766892 0.22386057945265328 -1 13 -14
186 1 17.764726817992557 27.12143657057266 1.1386039513592796 -2 -17 0
764 1 18.15489357427473 25.282133128311223 2.552775800326551 8 1 12
727 1 23.874460660501814 25.871840654473488 0.4228696166153431 7 3 -10
758 1 24.139683881890303 26.652768643796865 2.6367422041209228 -3 -11 8
588 1 1.268278380458699 1.3718678831383875 4.477222376077875 11 -11 -4
394 1 6.023509825122671 1.8873745366789085 4.763712639368004 -1 5 3
936 1 9.87698780033714 1.8504621731931064 4.250622922629362 -1 -4 -7
258 1 14.813466021331234 1.5006806654013645 3.2037344275147186 -12 -4 8
597 1 17.383060026458736 1.250579230989611 4.971805846043503 -20 16 -2
341 1 19.170491838924168 2.7092633666270918 5.150604380166042 -8 9 -5
475 1 22.40357895295116 1.437364370085276 4.809600802435905 1 -3 -5
631 1 21.87325651123827 0.09900928582133528 2.9239819777291234 -8 5 -9
927 1 25.348214735911828 1.5323871680921595 2.8640558533359273 13 -10 -2
958 1 26.167386194953334 1.9381264746902764 5.027504554681262 0 5 11
490 1 2.36124397756605 2.868791754701005 2.9912338150342603 -6 -2 -2
844 1 2.194618298103762 4.7493647886713735 4.418379897655198 1 12 -3
469 1 5.828543103346091 4.166392338733419 4.186274463204791 -2 -3 -4
900 1 7.868306174489715 5.348308234443171 4.534965928262355 4 -4 1
329 1 9.664036655620121 4.111945594992271 3.623488206926864 9 -5 9
115 1 11.385544460058242 5.214047278134532 4.746124839499434 -16 -14 0
712 1 14.835933864775367 3.2587692133460644 4.80201071389288 4 18 3
494 1 15.507458356601662 5.224163667281398 3.637200914498245 -9 -2 6
380 1 20.272492609525397 3.8174704316249897 3.396404750788054 2 -3 15
132 1 22.48511475762004 3.71680123509182 4.157252964375905 -18 -3 5
586 1 1.9012581781728843 6.568462587103874 2.8350490135691624 -6 8 10
142 1 0.06637435799016314 7.4123467404899825 4.146550436995446 -6 0 -12
651 1 7.040109513261436 6.762975865543323 2.741988968875756 0 3 -3
84 1 8.62875162366901 7.509035610071517 5.334386367036608 15 0 10
694 1 12.349828471468687 6.636743777636865 3.1657432894082858 5 -12 -1
561 1 13.346793777190403 8.141511177982933 4.756842627991069 4 -3 -9
653 1 15.449044412949922 7.137359776668214 5.081899839283814 -3 -11 -6
234 1 19.333626477865145 5.937333686942603 2.8480082996821268 12 -2 15
964 1 19.39209253834327 7.4722605315297415 4.618288714463466 8 0 -2
210 1 23.497245319410382 7.297066949874468 5.186224325367106 0 -2 4
83 1 25.342159738663717 5.969460517385661 4.43452432465747 5 -4 0
168 1 3.057399106998149 8.681967335789848 3.4433578350502927 -5 3 0
140 1 8.903050079491214 8.183445446573053 3.1029152150591224 -11 6 1
572 1 13.539285473611384 10.2091789226167 3.697515557970129 -6 -4 8
496 1 17.085616771929374 10.470559839028732 3.881152033861946 -7 2 -6
353 1 17.364234757371072 8.545353719681682 5.168728233682321 -2 11 -10
428 1 21.561877388424627 8.361790711810507 4.179820480632111 13 6 -5
247 1 21.212815448168826 10.538055777698192 4.9468153359875595 -8 -15 3
856 1 25.841846983303828 9.031481920280273 3.0622279490035296 -8 -1 -8
255 1 25.072588871108152 10.121669556664195 5.041907847952658 0 -2 10
768 1 1.8138947513627033 12.655142148202064 3.4886740412876334 -7 15 0
284 1 6.7490636322864725 11.956657410206077 4.514829005578506 11 -11 -10
178 1 8.644828727033074 13.22044976623021 5.354280227208391 1 5 -12
748 1 11.423542553696869 11.261085373529879 3.5769259640456537 14 3 1
389 1 11.006077844634671 12.80910311858528 5.302327136743844 -15 1 -9
662 1 14.143158657638372 13.189105033269515 2.9760971052129377 -4 2 -4
405 1 15.18455951519303 11.732240287345158 4.668684160623435 10 6 4
714 1 19.21841970844605 11.54186051593399 4.1124772281656075 10 -7 -9
243 1 23.28737596574395 11.521757510495911 4.383852251944633 -9 2 5
145 1 3.598714198783202 14.069612403759134 2.8033673162493504 3 1 -18
973 1 5.405181216237827 13.919791680388586 4.326727092998979 -12 -2 -7
548 1 6.551358624393173 15.735858253186155 3.3162497856933792 5 -2 11
827 1 8.454661446893397 14.388538827996959 3.266575971468717 -7 1 -3
642 1 10.451982739606194 15.625632941197653 3.4341419123979504 6 13 -7
968 1 12.334267180465236 14.349777433090466 4.086199239198865 -10 8 0
771 1 13.720510217376544 15.891253236475643 5.187320705969577 2 6 10
590 1 16.4372857508049 13.76702246219666 5.057807574810457 0 10 14
641 1 18.88562772824518 15.74038029592428 2.90866762336305 1 1 -5
161 1 16.620383047666888 15.117532381536089 3.163389809253949 -8 -6 8
46 1 20.055133597332983 15.361022487535065 4.924996905822278 -4 14 -1
628 1 22.365890658485725 14.882236040565818 4.543974989328385 4 2 2
433 1 26.82605627900072 13.722917283982774 4.036787201840247 2 11 12
348 1 26.128719317810944 15.95911774737227 4.538024490677101 -3 4 2
425 1 0.4314068869353504 18.704880669742423 2.90524290284434 6 0 5
872 1 2.678878485142779 18.051877378048516 3.1493407103217885 9 8 -3
119 1 6.344079370751009 17.238586478836925 5.1226583379122115 -8 8 11
796 1 10.080024594598564 17.339191509744076 4.980991818927944 6 5 -19
794 1 14.988804407710672 16.81209044674211 3.459206902141866 10 5 1
150 1 16.05398387918535 18.521095628041962 4.650001354927684 5 3 0
74 1 23.445836613346074 18.688354725501313 4.994942723229104 -8 8 -2
270 1 23.935583605880552 16.423650151545395 5.377636709060947 1 3 4
340 1 1.4473432195414044 21.67683075489839 5.040903452315072 1 1 -2
39 1 6.8755345989221315 19.32688259657976 4.22378038623466 -11 12 6
413 1 5.978963486318466 21.27995917149491 5.238560044826922 -9 5 -8
396 1 9.201916083812273 19.23980891705599 3.90728850570637 3 -8 -4
886 1 10.444230480100135 20.64272648423561 5.303684767698775 8 1 1
507 1 13.836164434351689 19.865706608967354 2.8111013670013008 -5 -10 1
574 1 14.262565251846343 19.987592768946904 5.140952754946438 -3 3 4
656 1 17.57916885120973 19.514784112389965 3.2040413345138967 -12 2 -6
91 1 18.464736668750888 21.4895741385362 4.09016646355707 -1 7 -11
109 1 20.77913219927639 19.608900691774927 3.2110479465217527 2 4 -2
225 1 23.05205670690714 19.17034398901798 2.7465015437806883 -4 2 -1
781 1 26.748352493345877 20.621674981812774 4.0146518938471445 12 2 5
643 1 4.854005502549726 21.791313656575483 3.2763868409571733 -15 -9 -16
984 1 2.8477490346538286 22.927810560526268 3.5578422825555007 3 -3 4
879 1 10.746304303686935 22.155152757927496 3.5028265064407065 2 7 2
946 1 10.473739617207714 24.35994276377648 4.201135330406678 -15 -14 -10
241 1 16.56714997339258 22.871748271397276 4.447707480964516 3 -4 -8
25 1 23.534507989443487 23.0878574760935 3.706648484220301 -16 21 -1
696 1 1.1873881172669307 26.29676487380344 3.685673645171832 8 -10 6
559 1 3.2427725262879723 25.238411470922948 3.9943645916787993 2 13 -6
3 1 8.157479805021929 24.59707729029881 4.6060048613278255 1 -14 5
476 1 14.528078101211314 26.391751893118396 3.8778673556588728 -8 -1 4
947 1 16.58025746187886 25.227855867926692 4.310983209070175 12 0 5
281 1 20.36994024601398 25.47340222361945 3.348286233540228 -2 1 5
180 1 25.24849678768471 24.653824641169013 3.2256860084742915 -10 -8 15
985 1 26.815741729897574 24.942069070309792 4.962450476649427 7 -12 4
232 1 2.6271674512047927 1.0346880128528508 6.348836205191618 -2 -4 -9
49 1 4.478690344525987 2.481055996897226 6.461397166046639 23 -8 -3
833 1 8.057932983940596 1.2842297323684488 5.644654081766776 13 11 -7
655 1 7.666491372929433 2.7170975002586286 7.468519630219561 7 5 -6
704 1 11.034967745307393 1.0371015670101946 7.938993139755078 -4 2 4
724 1 11.683801446872007 1.565219202862342 5.741045899227247 4 8 3
969 1 15.73339735463821 1.924736532224694 6.576321522823813 1 -17 1
917 1 14.296226487139528 0.24503067129074232 7.550380601499005 -4 -9 1
745 1 20.505900354465474 1.0190616876744298 6.103351784862062 -18 7 9
489 1 24.362460940925526 0.6877057437003907 5.915301180725851 6 1 -6
65 1 24.371465303724968 1.6669593985417464 8.056054309677174 3 -20 8
802 1 0.8921337345981061 4.736495936238201 6.469571364601409 10 10 -8
194 1 4.127304939277584 4.712700646861181 5.718192107006444 -2 8 -1
466 1 7.880393512738933 4.968514786401806 6.894109634252511 1 -9 -3
164 1 9.997334478269883 5.022103832351587 8.138444735375812 2 -6 2
817 1 12.759762697994054 3.62853517977591 5.8297907732144765 15 7 -5
63 1 12.37206911859805 4.5125969443262415 8.003042892599543 -3 -3 0
689 1 18.730143388073568 4.372483836173949 6.732259541565053 -10 4 4
687 1 16.795277352993672 5.061176496402242 7.915283226145851 4 8 7
959 1 22.503975254832845 4.700347296563967 8.035049821252791 12 8 3
926 1 22.296130754584244 5.409534822854371 5.824658993098583 5 7 7
41 1 25.84637428835404 4.128460880074637 5.899965933933912 -9 -7 6
972 1 24.74141750048142 3.9861582692162547 8.008473864098967 18 -1 16
835 1 0.7545854516935321 7.095678550551773 6.386687175542888 -10 4 -3
859 1 3.9582335932378 6.229703357411285 7.529247447898299 -3 -6 -6
577 1 6.302888094375818 6.542405824638365 7.68735196037788 0 -1 -1
942 1 10.516482744418857 6.617522818925688 6.390044292788124 2 7 -2
623 1 15.389942758386342 6.883460999820997 7.450657905675825 -1 12 2
834 1 20.148606463144972 6.152581901007125 6.3450852410810965 -11 4 0
430 1 26.416830726472885 8.032199051751354 7.920936307067454 -7 11 -16
510 1 2.6977547342988895 8.209512597639684 7.107120872135311 -13 -12 -2
509 1 3.445547933824697 9.774747276865789 5.5226281306821505 -4 -8 -8
298 1 5.711860364315976 10.417499120033959 6.054757581244978 18 -3 -3
379 1 7.110015090432586 8.594513257106223 6.7841467578091175 14 3 -6
903 1 12.19123397000234 8.219129435409187 6.855490287911752 -3 2 -2
295 1 11.992113719721294 10.252074699253255 8.11524305859546 3 3 -5
188 1 17.54906918439131 9.576098337281719 7.294998130696396 2 -3 -1
691 1 21.28649518004528 10.74511863578255 7.288460553959155 4 -6 11
774 1 24.444853858981748 8.699124308865606 6.849844874691804 -2 -2 -11
446 1 1.9538548828692397 11.648049547076125 5.579785651714527 1 6 -9
938 1 2.697020681172012 13.352578302501744 7.018967648296292 -9 2 -6
415 1 11.99687361367965 12.544675878598534 7.442735887242269 -3 6 3
444 1 15.14914851577218 11.782419732930896 7.138885917056782 -11 -6 -4
871 1 18.739863055512235 13.382580217465044 5.614127940877389 7 4 2
956 1 17.5269234563871 11.916411037282609 7.224427223768004 5 -3 -2
250 1 23.516949229888507 13.27843631436562 5.907895911200785 9 -6 2
676 1 22.306139600384 12.883093622566554 7.893076439011944 14 -4 -2
104 1 26.87091421797466 11.104146395868801 6.308178598548035 -2 0 2
423 1 25.893130907471903 13.25000558434701 6.2166945339642306 11 12 12
159 1 1.6396964866280226 15.444754980325252 7.4223945626025705 11 4 5
987 1 4.703690274854037 14.440433651193764 6.488955491385542 10 6 2
527 1 8.459472569756182 13.926975925070153 7.661658057268307 -12 2 1
976 1 15.214690925459497 14.92608074131564 6.6930008650432935 0 3 -11
736 1 20.06797038442815 13.69524725194324 7.645592073444966 -6 13 -4
978 1 26.7193872232444 14.578644879224344 8.061803781961933 7 8 -5
1 1 0.5737920160262638 16.968655171659844 5.975748787708857 -7 4 0
516 1 2.6366481705883187 17.935001766441985 5.474569006497186 0 -5 -11
220 1 4.467369507661531 16.787305956235 6.416901958651316 9 0 5
269 1 8.236695054501435 17.561396369322296 6.431215014282954 -3 -1 -1
755 1 12.017947216156902 17.103900509313817 6.263636947488172 0 0 6
133 1 16.50410317132674 16.505624162657995 7.817615718979817 9 6 -10
974 1 17.54962287262822 18.00016030650357 6.410895703417567 4 20 -5
368 1 19.82145726334954 17.32518047795176 6.242578816957603 10 -5 -8
671 1 23.812349670939284 16.582226353496594 7.760429702057783 -3 -3 -5
896 1 26.585454174550026 18.589697371497728 7.227345428657083 -1 4 7
635 1 2.447285978570346 20.0651514146635 6.477931437718882 7 -1 -18
520 1 4.538064620153585 20.945757674699614 7.052877121502688 6 1 8
212 1 8.102316537064857 19.51097744831437 7.807196821128967 4 9 -2
862 1 9.067573267843851 21.54562003540547 7.005325668698571 7 -1 -7
521 1 12.283402100372617 19.44389626741672 6.2300808242557375 -1 -7 -7
811 1 16.127642651764702 21.174025231015396 8.103598270262244 -3 14 -7
558 1 18.05129159587529 19.93141962574485 7.638815223828819 10 1 5
354 1 21.165892658881955 19.24958869647593 5.58580772303914 -8 -9 19
705 1 19.51169150753585 20.922425382739082 6.082113069922621 -5 -4 -3
191 1 22.333059785491983 20.250747430853814 7.433256658972196 2 -2 7
772 1 24.17355547058112 21.67620799429241 7.061582459676451 2 -9 -7
606 1 25.26440812561973 19.9655130721386 5.799080640929648 -10 2 14
120 1 0.7165736507595567 23.364893988916382 6.464424657800748 4 -6 3
294 1 2.562430441933347 24.36746954766709 7.525253878695757 -12 -4 -17
485 1 7.405058193535172 22.93203980840224 6.1278156650092095 0 -8 2
669 1 6.27071597406526 23.910683543504728 7.933345354048812 -5 -8 -10
482 1 13.598828761056474 23.61726167696448 7.05580759033758 -3 8 2
911 1 15.096199777765271 21.995852407022586 6.082984659209241 -14 -2 -5
12 1 20.13756173404138 22.752038236023445 7.468062976887876 -10 -9 11
702 1 23.5746944988055 23.69365311596171 5.985711365975547 -1 -10 -14
627 1 3.5420798064899843 26.013381305443243 6.188633545917355 1 -1 -2
569 1 5.755832102981915 25.99435458555446 7.034369440403623 13 -3 -7
570 1 8.0491325877303 26.20680077387887 6.335590086973366 1 3 -7
334 1 10.116488346909252 26.017932205602822 7.533166128356754 8 -4 -6
918 1 13.041663760817531 26.74937167258786 5.681370599534383 2 -2 9
64 1 11.716432132384641 24.86146100952188 6.143648707925507 4 12 -7
4 1 15.061784393613724 25.233012172974853 8.091749910429087 -4 0 0
566 1 17.962057394802244 26.288277453170114 5.867352491888373 -4 6 5
170 1 17.340996167725137 25.979344532165072 8.095710130688893 -5 -24 12
82 1 20.260020395362076 25.881803175304057 5.632398454959614 0 9 5
857 1 21.630764506759537 24.53243256028381 7.017798254863551 2 9 -18
583 1 25.03396200597217 25.57253754949286 6.3399939056121015 22 0 9
534 1 1.472694072344189 1.4332384810956924 8.327163284558813 1 2 4
404 1 5.13938048464786 0.14697235184539412 8.900665720076782 -5 9 14
801 1 5.606922846854192 2.3866601497081406 8.533796358562137 9 -19 11
312 1 9.595045363577874 2.68575199615995 8.777905571326471 7 1 7
674 1 12.924442282502241 0.9916586407140361 9.331454661818652 3 9 -8
750 1 18.482790526544775 0.47885131478308524 9.486971556858531 -3 12 -8
35 1 17.47713855324987 2.5158752028626825 10.166081134867762 -3 2 -7
741 1 20.463258830308458 1.3065417353763826 8.408653026172026 11 1 13
264 1 22.55305297543922 0.8884609261908609 9.369124208472725 -7 5 9
197 1 26.405677414589935 0.6378545029683285 8.570019612818228 -1 14 -6
361 1 26.98116530884859 0.8020642356638213 10.82464978748403 -1 6 -1
42 1 1.119614154276511 3.8052218263606346 8.800551785724878 1 -12 4
888 1 4.704492696755754 3.733657938057426 10.242282851677835 -1 -9 3
435 1 3.00550059867443 5.125537557703272 9.384433015707488 -5 15 -8
546 1 13.59262987995766 3.226774831291937 9.581196902374433 9 11 10
575 1 15.761634271622222 3.0931856847668966 8.641219500029143 7 -8 -7
562 1 20.386552303622285 3.612420045682682 8.218374737683906 4 -12 2
355 1 19.1831600328679 4.16847146628261 10.136312396179111 -9 -12 -6
461 1 26.19196360084826 4.638481122852316 9.763294839090166 8 11 0
784 1 1.7373747923574197 6.663971512308838 10.720591537164303 -15 12 -1
941 1 7.02579879558607 6.96174543693513 9.881764956811802 -14 3 2
89 1 9.276447010394433 6.102175769536225 10.133034073112807 -2 -12 -7
620 1 13.22081816166493 6.670431881578808 8.297822900168669 3 -2 -11
826 1 13.059091196986332 7.243514797229758 10.579390800909664 0 -3 7
442 1 18.105019149251653 6.137937952729023 9.52769690136885 -6 -5 -12
146 1 20.00373971058236 7.091776738041221 8.495384672028864 0 1 -16
395 1 21.937708622640976 6.355544417608335 9.6241868130503 27 -12 -10
111 1 26.597452768032703 6.958342291735988 9.980522594009628 -13 -12 2
961 1 2.159137225247613 9.567738256891365 8.97848699372504 1 -1 -3
296 1 6.4071647011392905 10.270549726822315 9.870353691217268 -2 10 -5
44 1 8.094107049686535 8.962925251540442 8.915588090623835 7 7 3
34 1 10.248730461076498 9.701854006076832 9.701616325124954 -16 8 2
617 1 15.863333993773953 8.860227941307096 8.762613938399443 -6 3 12
650 1 14.211562525643764 10.58604846221723 9.071405176501813 1 -19 14
193 1 19.64690241629269 9.413522085118217 8.319909790855247 -18 7 -6
93 1 19.744440037156917 10.746937692695985 10.255924980048906 -6 0 5
636 1 22.904235045420318 8.312164632797787 10.553970284841427 13 11 -5
729 1 22.947123390611416 9.562624808255656 8.472985712774337 4 -2 1
685 1 27.052982903723432 10.237812199202525 8.527155336173466 -5 3 -3
358 1 2.2338370557806795 12.958238175512585 10.478190583511957 -14 -11 5
951 1 5.352669160017698 11.47202402659193 8.168293413170627 5 -2 -3
773 1 3.061111699437271 11.709719821293486 8.678884259116106 15 -2 -3
564 1 14.529201675281325 12.650939337283557 10.371296746429094 -2 6 -1
274 1 18.700826937945536 12.55049362933258 9.166055462477715 5 5 3
381 1 23.534154300045035 11.610113654933834 9.538852454057615 3 -3 -3
912 1 27.060847537909382 13.477807185071876 10.144929553929673 -8 -7 2
181 1 25.819270410552 11.481824957782864 10.22363618478094 -2 2 4
681 1 3.4100498773202177 14.951166982952815 10.708497135908948 -1 4 7
876 1 6.166037289032689 13.671428644349149 8.215756918067415 4 -2 -26
779 1 5.69316771716774 14.612146856848927 10.327480640285485 -4 15 2
206 1 8.28835417214146 16.208581810898167 8.327165119239645 13 3 -6
218 1 10.630273728095972 13.994825615274912 8.694790077997288 5 -3 12
391 1 11.655829591835404 16.125784128300545 8.393691936387533 -4 10 9
529 1 14.030609603284141 13.61412191843313 8.246195318527718 0 1 6
842 1 13.729035296220644 15.754751158520905 9.434181067904419 -2 -3 -1
966 1 18.29992699451052 16.17938474373129 9.285303098950797 6 3 -6
557 1 18.627849482801306 14.330781663553712 10.707917277352443 8 0 -4
904 1 20.405838419415925 16.040815797793808 8.17944448894533 -3 -11 -9
788 1 22.472752524173345 15.052209627869242 8.974777281176783 -3 -7 1
436 1 1.4949224155836596 18.34847746647337 10.118424459758524 6 -1 13
933 1 2.7189080299615243 16.578374714095677 9.18296625383604 -7 -4 6
369 1 4.751844978016261 17.593098180004727 8.575484211578761 7 7 7
434 1 6.514736777093146 16.69608429801211 9.81371521740069 -3 2 -12
144 1 9.991799987642873 17.234287122432427 9.591387814742545 2 -7 -9
937 1 15.344299147873713 17.522080116516488 9.57261511199774 3 5 1
686 1 20.80892989167532 17.812029588344142 9.74427047507188 9 -5 0
658 1 22.845232610940133 18.45605311169233 8.810139202400876 -6 -11 14
921 1 25.952796065543332 16.763202068137666 8.603902908145722 14 -7 -6
338 1 26.790970890593467 16.99219015600635 10.774131211427761 0 -6 3
498 1 0.9766809957362009 19.952567592409903 8.374714622211888 -2 -1 7
709 1 5.413936218610641 20.613786564787546 10.720277162154835 2 -15 15
407 1 5.786761158067526 19.692929183683532 8.579125434157815 -3 2 -6
943 1 10.134967495975175 19.476444944844086 9.082037267088241 1 -1 3
302 1 9.757812875580065 21.136492959499858 10.683157043663723 5 -2 -7
189 1 12.391967157715134 20.039460028768534 8.465101653274584 2 -7 4
245 1 14.606129145528344 19.770110610999183 9.310429374924142 13 -1 12
612 1 19.215730719677683 19.558405143226214 9.65937437971393 -15 6 0
988 1 20.866124944591984 21.1403810074744 9.030517713704391 9 10 5
32 1 1.5965644400560874 22.960759565261863 10.217861262315024 13 0 2
57 1 0.18995176390399152 22.192515787483774 8.501171472666043 8 7 12
427 1 4.222364587512306 22.902223359913854 8.305031116117759 10 7 5
158 1 3.8773998421585585 22.430475962345454 10.572834958460748 15 0 2
439 1 10.192703178729667 22.570416247931693 8.86477257391028 -6 13 18
808 1 12.524928064550648 22.363841487602173 8.75830639669403 -5 -3 -1
747 1 13.561045422465444 22.715899433161184 10.824935569323365 -1 10 -8
438 1 15.225483637869667 24.27896554251823 10.264283908367917 -8 1 -6
201 1 16.979519286139652 22.881477102830765 9.565858542441736 2 3 2
375 1 18.730870939144854 24.160769384636133 8.703004424019557 -1 -6 5
901 1 25.051421203591463 22.418573136015617 9.114454426478892 -2 9 -7
346 1 1.3052438370589463 25.187857239786666 9.363080553960547 12 1 7
92 1 2.8693967561956923 27.082894208739663 9.568636577525162 11 7 7
300 1 7.3860512863757 24.498129778339973 9.919729101049027 24 7 -6
387 1 6.319220526007155 26.418121311579835 10.705716006822351 14 -13 2
663 1 9.692082160130441 24.766226683692423 9.486338316969723 5 0 -11
592 1 20.371914415250103 24.92434181366915 10.25465620392049 2 -1 14
390 1 22.280971702074854 25.664891297399013 9.03113443119066 -15 0 -9
45 1 24.37313585354776 24.655804106592594 9.587537917771808 -9 -12 11
216 1 26.231596585746665 25.475764725152334 8.382318292300393 14 0 14
230 1 3.4303187275435887 2.3778977469286917 11.74006202604592 5 -11 6
71 1 2.8116430947019784 0.0801953436743243 12.059412331197068 6 11 6
495 1 7.824551786399238 0.7328891768492232 11.746665448210896 9 3 10
473 1 9.295584834350885 2.44716646537844 11.099137987581784 8 -2 12
53 1 11.005012997689667 1.6664593257621407 12.551440086630574 -2 1 -2
94 1 12.331212058577659 0.08898274970988956 11.455065859398424 15 0 10
949 1 16.11833297161594 0.49516624081513116 13.23755855160913 -10 5 2
776 1 16.27506398599498 2.6187955347488185 12.215807288890216 6 1 7
456 1 20.757600985726974 1.0721536691286868 12.648576433881658 4 2 -16
679 1 22.09289004812332 2.392106262742099 11.200876885578397 -9 -5 1
930 1 24.008269527229917 2.495593235842167 12.513628520456107 -10 9 -10
17 1 25.165643462651428 0.48109822143790937 12.236389536631144 -2 0 -3
406 1 1.1967026620186973 2.7294272096003747 11.011740167215402 1 8 4
673 1 0.45891977175911647 3.8480076811421515 12.88898074504552 11 4 -3
362 1 5.257580903542619 4.9547727293132136 13.358684586090195 2 -2 2
789 1 6.36478722303129 5.0808088298650445 11.289680624485209 7 3 8
503 1 8.631880790222041 4.5551767162986705 11.788664851915383 6 -7 -1
497 1 12.387827978722662 3.3821101602594843 13.338855291638504 -10 1 0
725 1 14.199233013925522 3.7314196265891546 11.81952014079135 3 -1 -14
846 1 21.261866225881377 4.662158973239505 11.159901075965541 -16 0 -7
306 1 25.432530573080367 4.298491568417527 12.018657957390525 -13 -12 6
847 1 1.2410197545893387 6.031136351208505 12.949842257585866 -5 -3 -13
37 1 10.753359973307477 7.73354745010695 10.90207176266416 2 -1 7
30 1 10.308243254890263 8.0944643771319 13.170661021246744 7 -1 -2
214 1 14.689570489254582 6.004486030746612 11.842151821298353 4 8 -2
843 1 17.052461583670418 6.468413204684349 11.610208282576151 -2 6 3
742 1 18.673937153828632 6.529624492599147 13.366459693310068 0 1 3
20 1 20.89283475176361 5.618254815399095 13.263604074599165 0 10 10
259 1 24.653101111654472 6.318913943554216 12.982987583525718 4 -14 -3
6 1 25.093994000103333 8.029397149574566 11.474651279281774 -3 5 4
127 1 2.284252080587264 9.469979204901376 13.135117231324196 -16 11 15
271 1 5.4197957634966745 8.413541587578276 10.973734452841706 1 -9 -3
718 1 2.996087729429029 8.62454748403904 10.999877472146853 2 0 0