100
 Atoms. Timestep: 10063
1 6.16012 4.30112 0.700623
1 8.117 7.77919 3.3196
1 1.81392 10.2378 5.0601
1 1.48302 8.21972 11.9716
1 0.0864867 5.72941 7.09736
1 3.44408 9.45075 1.56036
1 2.46753 9.86429 10.5231
1 12.2528 8.33664 2.00099
1 4.52762 7.43038 11.3353
1 4.11048 9.81687 7.66961
1 5.36703 4.0178 2.84998
1 2.28077 6.55556 6.6185
1 10.1307 9.15806 10.7497
1 0.318653 11.6959 3.92523
1 8.60214 5.52435 3.75251
1 5.91699 6.70367 6.36876
1 4.33327 0.41753 4.39284
1 2.69904 6.26515 12.4414
1 9.37569 11.3537 3.01748
1 7.10689 10.8479 2.50562
1 0.519428 3.46936 1.57374
1 3.75537 11.5333 9.26735
1 9.90017 12.5536 9.95227
1 5.68029 4.28629 8.5367
1 10.6995 2.19759 10.9455
1 3.57002 5.0542 5.32615
1 11.8146 0.648881 5.36125
1 8.23687 0.304279 6.61977
1 9.51508 0.466834 4.66789
1 11.3282 10.0134 3.39742
1 7.16588 3.73561 4.33988
1 12.1312 4.38331 8.92697
1 4.52741 9.82838 12.0428
1 9.24368 8.32887 5.36084
1 0.986523 6.81882 3.24305
1 10.9471 4.55581 5.9832
1 5.99264 7.65772 4.25599
1 0.563601 5.07107 12.4811
1 4.06985 0.529597 1.22259
1 0.490397 8.97631 9.17292
1 5.86802 0.13779 6.27116
1 0.717497 4.47484 3.65939
1 5.76188 1.5107 10.5469
1 8.76991 11.0495 11.5689
1 9.85448 4.99884 1.79594
1 9.78965 7.59391 8.9341
1 11.733 2.91732 4.46272
1 9.04609 6.03783 6.04921
1 8.41204 3.69779 0.457869
1 9.20898 11.2165 7.93965
1 7.61882 8.18564 1.03516
1 5.5345 9.91579 3.98701
1 7.72294 7.17402 7.82651
1 4.19557 7.46687 7.79293
1 1.76076 10.1985 7.41893
1 3.74902 2.26881 2.92123
1 6.85109 10.2418 0.220784
1 10.8557 2.91961 2.25765
1 0.938778 1.28511 0.751554
1 10.6647 5.72188 10.1364
1 7.41166 2.88121 9.38217
1 7.91949 9.44225 7.01694
1 6.19624 6.55551 0.128629
1 9.14029 1.63981 8.34822
1 4.34774 12.2772 11.4672
1 2.64221 1.31338 6.01666
1 2.421 3.19757 4.60493
1 11.1528 1.30954 0.481391
1 0.839498 11.2267 11.6205
1 11.4504 9.14913 5.63114
1 9.40966 12.3707 0.854149
1 11.1085 2.7863 7.56838
1 11.321 6.597 0.561584
1 8.77438 2.2473 3.33641
1 8.98256 3.9945 10.7909
1 11.7376 7.8145 7.59527
1 11.735 10.8762 10.0421
1 0.579736 1.41432 7.34333
1 1.17381 9.93851 1.01793
1 4.09339 2.62645 9.25057
1 9.25973 7.44646 12.1817
1 0.257032 3.31917 10.8443
1 4.15107 0.782832 7.78415
1 1.00037 8.05446 5.22145
1 2.94692 7.16638 1.99238
1 0.300578 11.86 8.21823
1 5.68415 2.06087 0.203665
1 1.74085 2.02065 9.51402
1 6.03891 0.293026 2.6427
1 7.76496 1.46844 1.32699
1 12.0465 7.58046 10.9959
1 1.83442 12.0917 2.07637
1 5.70056 4.39825 6.15779
1 3.45381 10.903 3.51178
1 5.86236 6.55873 9.42655
1 11.219 11.292 6.70986
1 2.09818 0.584362 11.3936
1 5.90734 10.391 6.2455
1 4.46663 6.1121 3.42814
1 7.71639 6.09106 10.9768
