LAMMPS data file via write_data, version 23 Jun 2022, timestep = 51000019

100 atoms
1 atom types

-0.011260420401601579 12.615610750090202 xlo xhi
-0.011260420401601579 12.615610750090202 ylo yhi
-0.011260420401601579 12.615610750090202 zlo zhi

Masses

1 28.0855

Atoms # atomic

80 1 2.0629895123903466 1.9270473084895923 0.41960113259502707 4 -1 -6
39 1 4.07072167219842 2.3415991644706255 1.5270406977777236 1 3 -7
57 1 5.6132940911519595 0.7717434313832033 0.6701925053703996 13 -1 7
63 1 7.755466645567445 0.9593160118849311 1.8047161104328697 -8 0 19
77 1 10.170269852010728 0.7297708112094696 2.203805763423824 -7 2 3
38 1 10.706454442987823 1.8687949767015193 0.1422155941500925 -12 16 1
92 1 0.9974847512270848 3.6851163876073394 1.486572785217383 7 -3 4
83 1 2.1269497329797065 5.729764291989403 1.320413644124845 -14 14 1
60 1 4.25864375342085 4.682031743667129 1.2159070010921489 -28 17 1
42 1 5.255200330792258 5.6516275671838425 3.1329249666703447 3 -7 -21
16 1 8.189751148920132 3.407692717692491 1.8954357926902707 -5 -7 14
95 1 10.078823235403739 4.896920813687486 1.7593362773210495 -10 30 10
48 1 11.681859762938522 4.003810027689126 0.3265575069009657 6 2 -4
28 1 1.1919966419109536 8.878282456369583 0.26822113609932347 0 0 -4
90 1 0.26812576235629443 8.684639455274775 2.4356539462991447 25 29 9
61 1 5.866489027655865 7.995559360149312 2.883699183371958 -9 14 -17
53 1 9.325842910663196 7.1031891446515285 1.4337569847107698 -5 -24 17
19 1 10.831981036742446 8.91313172771345 1.2951522742160475 -9 -6 1
52 1 1.1113690622945953 12.429483407857179 0.8754985864993554 22 16 -23
45 1 2.60850838078683 10.7782476719342 0.12627737361249222 -17 17 8
5 1 4.670544734382957 11.295343354103352 1.1651039247293102 -28 0 18
43 1 6.297059234960102 9.618256381161098 1.130966608834845 0 -11 6
33 1 7.981180461713614 11.363651010717646 0.7497542416015915 12 -9 -16
22 1 9.858123570611413 10.941132292724296 2.051308650530997 3 6 -21
71 1 2.748261038338978 0.03515062178239487 4.353746687408154 5 24 -4
14 1 3.869232330765411 2.025718699919301 3.827361323047866 29 12 11
74 1 5.977632554662449 2.248026268704011 4.804102806837988 9 4 -21
49 1 6.555053045832824 0.27761362410650275 3.7304418117170837 -15 19 4
15 1 11.814062465744843 1.2442641736423288 3.9079327281548717 -26 -6 -32
9 1 11.252209973187952 1.1796846048045082 6.213548844227026 27 6 13
30 1 0.3957192461920203 3.2443958384957967 3.678968524571609 24 6 -14
34 1 2.402628477199143 3.4453351621690054 4.915563137389582 -8 -8 -39
86 1 3.953609694423198 5.238953888854454 5.092893509557687 -8 21 -4
1 1 6.974035220981294 4.145052234831969 3.7599342749186593 -7 -9 -15
55 1 8.141934374606182 5.8863702536413305 4.82480075462393 25 28 -15
11 1 11.637030077226553 5.120530870603921 3.5173115014845258 -4 -8 0
35 1 10.374830297896274 5.446960026143461 5.42366652576401 10 10 17
99 1 0.8696273268668901 6.552351791227653 3.1912373712442963 12 -3 15
62 1 2.1554156421476236 6.679417638570749 5.174784237969136 -11 -24 17
7 1 3.1269012161987337 8.733246780334095 5.717948666721288 -10 -11 -10
73 1 8.126086606565652 7.76843173945091 3.355892172907586 -9 2 0
20 1 10.63710896334326 9.43190660528844 5.570839616438164 -7 -26 43
12 1 0.7185954619755269 12.236291143349337 3.234055950876147 10 6 -5
79 1 1.4674718178301678 10.32814999207688 5.982930141685663 -4 -9 16
26 1 4.991750552937404 9.478421394470724 4.512870894379277 -13 4 -9
67 1 4.632194790072201 11.540541250353208 3.4946466962787635 -17 19 -17
68 1 7.679864140238845 11.465150275349137 5.177294322109251 16 19 5
21 1 8.986595613558507 9.894539760143704 3.9843833794972316 1 1 -26
94 1 12.508430417453198 10.216301675730872 4.214497494234599 -7 -24 2
6 1 2.3997494287016474 2.28619097763955 6.978071466496045 1 28 5
84 1 0.28250836113713407 0.2927129709117041 7.7851512958046 18 -11 -9
70 1 5.903754945805684 1.5882671211023751 7.050517771816408 15 8 2
66 1 4.402963379279638 3.0470926620115066 8.051639729607666 -14 -7 -11
29 1 8.034896239077478 1.5718961649616534 8.008036071011897 13 -22 -8
18 1 9.158727733275585 0.1428715365246656 6.517254328649647 -13 -2 20
72 1 0.5044559920639343 3.6430710933899495 7.544759269051891 13 7 -38
44 1 2.848781823272107 5.632562507117768 8.559375798303533 -6 0 -33
4 1 1.033870248748409 5.899517220232723 7.08538360700184 0 -3 14
10 1 4.994943421895195 5.183632842979924 7.262296268542533 -7 -13 -2
97 1 7.452103389248771 5.254967483582084 6.989612452854025 26 -25 8
8 1 8.994296566625097 3.708022064423692 7.938959175939859 -11 2 13
13 1 10.93558433749463 3.485653905687126 6.651767990162525 -21 11 19
32 1 2.5580291898129763 9.385054575503048 9.143989071369457 16 -24 -16
31 1 5.634670996319798 7.122644840883429 8.4866940464858 -15 -1 23
36 1 4.416523622864377 8.967190331510782 7.703399514677603 4 -12 3
37 1 8.073996429833745 7.260718335993052 8.145001617797472 -17 -21 16
17 1 10.137602814269556 7.395794990899399 6.733849144238549 29 0 9
96 1 12.123526181265307 7.448798827768501 7.9558077838134 0 -19 8
56 1 0.5377520639769692 9.518441706951952 7.979932686080053 2 -10 -12
89 1 2.4344136659049576 12.453080448971033 6.7016461091047 9 -12 8
2 1 5.989667417119551 10.380718893231656 6.538255843171563 19 -16 10
75 1 4.749870250989355 12.212644856271313 7.472673351360669 -14 -13 14
24 1 7.702432057023702 9.61178825521173 8.060257589300752 -9 16 -5
64 1 9.68704861461386 10.676575365791205 7.346367462706936 -14 16 -24
85 1 11.595574372027599 11.112644020686234 8.59398853453975 5 -18 -3
27 1 2.268630534781357 2.3850879795759132 10.747164194946892 -8 -4 0
81 1 1.2502527501626823 0.38485553416600593 10.019580299254876 15 -20 -7
87 1 5.777780038806725 0.9689083665805994 10.972169702336917 -24 8 -12
58 1 4.542827122223796 2.857079371656169 10.389202437399028 -17 2 -6
46 1 7.997436119525128 1.111266025076387 10.299219638255318 22 8 9
3 1 9.042323081156855 2.8732249538729797 11.40864969528305 7 3 -13
88 1 12.21243630068231 0.35689973553193977 11.756763867071156 16 -9 12
25 1 1.2770441767119234 4.209075353899936 9.691490431997696 -12 8 26
100 1 5.302073196621733 4.698912132739791 11.710533332461162 -16 -5 14
40 1 7.529949563258716 4.413881367025623 12.466376574159819 0 -24 -23
76 1 10.074958276294167 4.405941454229399 9.9600609280395 30 -3 -11
69 1 12.19193863122782 5.234930614474543 10.979554486044606 -4 -4 -12
82 1 1.3332174440544373 6.694953719456215 11.932057291413667 3 2 23
91 1 2.846117837184823 7.3010420446727 10.223073323930397 -25 15 -10
78 1 5.0688465839799095 6.84149592335774 10.744207497951306 14 -24 1
54 1 6.441649453190664 8.511352955087915 11.695858739332884 18 -21 16
47 1 8.020951973522196 6.77005450798038 12.121336066635749 13 10 2
23 1 9.221543643689765 6.583584632233763 10.12558205746841 -40 8 3
59 1 11.432316753017302 7.348310493178805 10.212386593215356 -36 18 4
51 1 11.742416103674495 9.140491349241701 11.762842214278455 23 19 -12
93 1 2.7980128257878674 11.273546621731985 10.483843331443511 0 6 -4
65 1 5.001196093614062 11.71778130210509 9.79088041520709 22 -22 27
41 1 6.924947243656426 10.310804393212873 10.174665105907373 39 7 17
98 1 8.665082586748234 11.60486524911427 11.123112885552665 -5 25 15
50 1 11.02218603437063 11.189478362064989 10.85502331084266 -30 -1 -1

Velocities

80 0 0 0
39 0 0 0
57 0 0 0
63 0 0 0
77 0 0 0
38 0 0 0
92 0 0 0
83 0 0 0
60 0 0 0
42 0 0 0
16 0 0 0
95 0 0 0
48 0 0 0
28 0 0 0
90 0 0 0
61 0 0 0
53 0 0 0
19 0 0 0
52 0 0 0
45 0 0 0
5 0 0 0
43 0 0 0
33 0 0 0
22 0 0 0
71 0 0 0
14 0 0 0
74 0 0 0
49 0 0 0
15 0 0 0
9 0 0 0
30 0 0 0
34 0 0 0
86 0 0 0
1 0 0 0
55 0 0 0
11 0 0 0
35 0 0 0
99 0 0 0
62 0 0 0
7 0 0 0
73 0 0 0
20 0 0 0
12 0 0 0
79 0 0 0
26 0 0 0
67 0 0 0
68 0 0 0
21 0 0 0
94 0 0 0
6 0 0 0
84 0 0 0
70 0 0 0
66 0 0 0
29 0 0 0
18 0 0 0
72 0 0 0
44 0 0 0
4 0 0 0
10 0 0 0
97 0 0 0
8 0 0 0
13 0 0 0
32 0 0 0
31 0 0 0
36 0 0 0
37 0 0 0
17 0 0 0
96 0 0 0
56 0 0 0
89 0 0 0
2 0 0 0
75 0 0 0
24 0 0 0
64 0 0 0
85 0 0 0
27 0 0 0
81 0 0 0
87 0 0 0
58 0 0 0
46 0 0 0
3 0 0 0
88 0 0 0
25 0 0 0
100 0 0 0
40 0 0 0
76 0 0 0
69 0 0 0
82 0 0 0
91 0 0 0
78 0 0 0
54 0 0 0
47 0 0 0
23 0 0 0
59 0 0 0
51 0 0 0
93 0 0 0
65 0 0 0
41 0 0 0
98 0 0 0
50 0 0 0
